

TITLE = "Historico HSA"


VARIABLES = E, fob,, Vd001, Vd002, Vd003, Vd004

ZONE T="ot_hAF", F=POINT
    1   1.26805872E+01   51   61   39   58
    2   9.36939254E+00   61   46   60   61
    3   7.41479742E+00   61   58   60   58
    4   7.19285260E+00   61   60   61   59
    5   7.17106380E+00   61   60   58   56
    6   6.75282278E+00   61   61   60   61
    7   6.49087172E+00   61   59   60   56
    8   6.14955254E+00   61   58   60   61
    9   6.12690860E+00   61   60   60   59
   10   6.04471172E+00   61   60   60   56
   11   5.26971254E+00   61   60   60   61
