

TITLE = "Historico HSA"


VARIABLES = E, fob,, Vd001, Vd002, Vd003, Vd004

ZONE T="ot_hAF", F=POINT
    1   1.27633779E+01   56   55   55   46
    2   9.73014767E+00   56   58   55   55
    3   9.23366328E+00   56   49   60   59
    4   9.17835610E+00   56   58   58   59
    5   8.93326278E+00   56   56   58   51
    6   8.64631409E+00   56   51   60   57
    7   7.80012003E+00   56   56   58   61
    8   6.68854721E+00   56   59   60   61
    9   6.66713496E+00   60   56   60   60
   10   6.60118721E+00   56   56   60   61
   11   6.22973012E+00   60   56   60   61
   12   5.83581093E+00   61   59   60   61
   13   5.74845093E+00   61   56   60   61
   14   5.38965093E+00   61   60   60   61
